<LesHouchesEvents version="3.0">
<!--
file generated with POWHEG-BOX-V2
SVN status Begin
/afs/cern.ch/user/g/grohsjea/gridpacks/powheg_v2/CMSSW_9_3_0/src/genproductions/b_bbar_4l_hdamp_NNPDF31_13TeV/POWHEG-BOX
URL: svn://powhegbox.mib.infn.it/trunk/POWHEG-BOX-RES
Rev.3468
Warning: not a clean version:
M       OpenLoopsStuff/OpenLoops/lib_src/openloops/src/ol_interface.F90
M       OpenLoopsStuff/OpenLoops/lib_src/openloops/src/parameters.F90
M       include/pwhg_rwl.h
M       lhefwrite.f
/afs/cern.ch/user/g/grohsjea/gridpacks/powheg_v2/CMSSW_9_3_0/src/genproductions/b_bbar_4l_hdamp_NNPDF31_13TeV/POWHEG-BOX/b_bbar_4l
URL: svn://powhegbox.mib.infn.it/trunk/User-Processes-RES/b_bbar_4l
Rev.3468
Warning: not a clean version:
M       Makefile
SVN status End
Process: b_bbar_4l
Input file powheg.input contained:
!!!!!!!!!!!!!!!!!!!!!!!!!!!!!!!!!!!!!!!!!!!!!!!!!!!!!!!!!!!!!!!!!!!!!!!!!!!!!!!!!!!!!!!!!!!!!!!!!!!!
! Standard settings which have the same meaning as in POWHEG-BOX-V2
!!!!!!!!!!!!!!!!!!!!!!!!!!!!!!!!!!!!!!!!!!!!!!!!!!!!!!!!!!!!!!!!!!!!!!!!!!!!!!!!!!!!!!!!!!!!!!!!!!!!
numevts 10
iseed 1
ih1   1                                          ! hadron 1 (1 for protons, -1 for antiprotons)
ih2   1                                          ! hadron 2 (1 for protons, -1 for antiprotons)
ebeam1 6500                                      ! energy of beam 1
ebeam2 6500                                      ! energy of beam 2
lhans1 306000                                    ! pdf set for hadron 1 (LHA numbering) [if using LH
lhans2 306000                                    ! pdf set for hadron 2 (LHA numbering) [if using LH

use-old-grid 1                                   ! if 1 use old grid if file pwggrids.dat is present
use-old-ubound 1                                 ! if 1 use norm of upper bounding function stored i

ncall1 80000                                     ! number of calls for initializing the integration
itmx1    1                                       ! number of iterations for initializing the integra
ncall2 100000                                    ! number of calls for computing the integral and fi
itmx2   3                                        ! number of iterations for computing the integral a
foldcsi   1                                      ! number of folds on csi integration
foldy     1                                      ! number of folds on  y  integration
foldphi   1                                      ! number of folds on phi integration
nubound 10000                                    ! number of bbarra calls to setup norm of upper bou
icsimax  1                                       ! <= 100, number of csi subdivision when computing
iymax    1                                       ! <= 100, number of y subdivision when computing th
xupbound 2d0                                     ! increase upper bound for radiation generation
storemintupb 1                                   ! (default 0, do not) Store st2 btilde calls to set
fastbtlbound 1                                   ! (default 0, do not) Turn on fast calculation of t


!!!!!!!!!!!!!!!!!!!!!!!!!!!!!!!!!!!!!!!!!!!!!!!!!!!!!!!!!!!!!!!!!!!!!!!!!!!!!!!!!!!!!!!!!!!!!!!!!!!!
! Some standard optional settings
!!!!!!!!!!!!!!!!!!!!!!!!!!!!!!!!!!!!!!!!!!!!!!!!!!!!!!!!!!!!!!!!!!!!!!!!!!!!!!!!!!!!!!!!!!!!!!!!!!!!
#renscfact  1d0                                  ! (default 1d0) ren scale factor: muren  = muref *
#facscfact  1d0                                  ! (default 1d0) fac scale factor: mufact = muref *
#bornonly   1                                    ! (default 0) if 1 do Born only
#smartsig   0                                    ! (default 1) remember equal amplitudes (0 do not r
#ptsqmin    0.8                                  ! (default 0.8 GeV) minimum pt for generation of ra
#charmthr   1.5                                  ! (default 1.5 GeV) charm treshold for gluon splitt
#bottomthr  5.0                                  ! (default 5.0 GeV) bottom treshold for gluon split
#testplots  0                                    ! (default 0, do not) do NLO and PWHG distributions
#charmthrpdf  1.5                                ! (default 1.5 GeV) pdf charm treshold
#bottomthrpdf 5.0                                ! (default 5.0 GeV) pdf bottom treshold


!!!!!!!!!!!!!!!!!!!!!!!!!!!!!!!!!!!!!!!!!!!!!!!!!!!!!!!!!!!!!!!!!!!!!!!!!!!!!!!!!!!!!!!!!!!!!!!!!!!!
! POWHEG-BOX-RES and bb4l relevant settings
!!!!!!!!!!!!!!!!!!!!!!!!!!!!!!!!!!!!!!!!!!!!!!!!!!!!!!!!!!!!!!!!!!!!!!!!!!!!!!!!!!!!!!!!!!!!!!!!!!!!
allrad 1                                         ! (default 0, single shower scheme) Turns on multip
hdamp 237.8775                                   ! Using a damping factor h**2/(pt2+h**2) to separat
withdamp 1                                       ! Turn on calculation of the remnants
channel 7                                        ! let top decay leptonically

!!!!!!!!!!!!!!!!!!!!!!!!!!!!!!!!!!!!!!!!!!!!!!!!!!!!!!!!!!!!!!!!!!!!!!!!!!!!!!!!!!!!!!!!!!!!!!!!!!!!
! Physics constants
!!!!!!!!!!!!!!!!!!!!!!!!!!!!!!!!!!!!!!!!!!!!!!!!!!!!!!!!!!!!!!!!!!!!!!!!!!!!!!!!!!!!!!!!!!!!!!!!!!!!
#tmass      172.5d0                              ! (default 172.5) top quark mass (in the matrix ele
#tmass_phsp 172.5d0                              ! (default 172.5) top quark mass (in the phase spac
#twidth                                          ! (default unset) top quark width (calculated from
#zmass      91.188d0                             ! (default 91.188d0) mass of Z-boson
#zwidth     2.441d0                              ! (default 2.441d0) width of Z-boson
#wmass      80.419d0                             ! (default 80.419d0) mass of W-boson
#wwidth     2.04807d0                            ! (default 2.04807d0) width of W-boson
#hmass      125d0                                ! (default 125d0) mass of Higgs boson
#hwidth     0.403d-2                             ! (default 0.403d-2) width of the Higgs boson
#bmass      4.75d0                               ! (default 4.75d0) mass of the bottom quark
#ewscheme   2                                    ! (default 2) 1...wmass, zmass, grefmi input; alpha
#gfermi     1.1658029175194381d-5                ! (default 1.1658029175194381d-5) gfermi
#alpha      0.007546772                          ! (default 0.007546772) alpha


!!!!!!!!!!!!!!!!!!!!!!!!!!!!!!!!!!!!!!!!!!!!!!!!!!!!!!!!!!!!!!!!!!!!!!!!!!!!!!!!!!!!!!!!!!!!!!!!!!!!
! Other settings
!!!!!!!!!!!!!!!!!!!!!!!!!!!!!!!!!!!!!!!!!!!!!!!!!!!!!!!!!!!!!!!!!!!!!!!!!!!!!!!!!!!!!!!!!!!!!!!!!!!!
# clobberlhe 1                                   ! (default 0, do not) Delete pwgevents.lhe file if


!!!!!!!!!!!!!!!!!!!!!!!!!!!!!!!!!!!!!!!!!!!!!!!!!!!!!!!!!!!!!!!!!!!!!!!!!!!!!!!!!!!!!!!!!!!!!!!!!!!!
! The following is the minimal settings that we used for the publication of our paper.
! It performs event generation with the `for_reweighting 1` settings (no virtual and modified subtra
! Thus the 'default' weight has the correct cross section for the parameters given in the powheg.inp
! a useful cross section.
! If more weights are needed, they should be included in the <initrwgt> section (see README.Compress
! If weights are added to a previously existing .lhe file, i.e. `rwl_add 1`, the for_reweighting fla
! is always used.
!!!!!!!!!!!!!!!!!!!!!!!!!!!!!!!!!!!!!!!!!!!!!!!!!!!!!!!!!!!!!!!!!!!!!!!!!!!!!!!!!!!!!!!!!!!!!!!!!!!!
for_reweighting 1                                ! (default 0) Modifies subtraction to reduce reweig




#manyseeds 1

#parallelstage 4

#xgriditeration 1 1


#pdfreweight 0

#storeinfo_rwgt 0

#withnegweights 1 1
rwl_group_events 2000
lhapdf6maxsets 50
rwl_file 'pwg-rwl.dat'
rwl_format_rwgt 1
End of powheg.input content
PDF package: lha
 Random number generator initialized with:            1             0             0
-->
<header>
<initrwgt>
<weightgroup name='scale_variation' combine='envelope' >
<weight id='1001' > lhapdf=306000 renscfact=1d0 facscfact=1d0 </weight>
<weight id='1002' > lhapdf=306000 renscfact=1d0 facscfact=2d0 </weight>
<weight id='1003' > lhapdf=306000 renscfact=1d0 facscfact=0.5d0 </weight>
<weight id='1004' > lhapdf=306000 renscfact=2d0 facscfact=1d0 </weight>
<weight id='1005' > lhapdf=306000 renscfact=2d0 facscfact=2d0 </weight>
<weight id='1006' > lhapdf=306000 renscfact=2d0 facscfact=0.5d0 </weight>
<weight id='1007' > lhapdf=306000 renscfact=0.5d0 facscfact=1d0 </weight>
<weight id='1008' > lhapdf=306000 renscfact=0.5d0 facscfact=2d0 </weight>
<weight id='1009' > lhapdf=306000 renscfact=0.5d0 facscfact=0.5d0 </weight>
</weightgroup>
<weightgroup name='PDF_variation1' combine='hessian' >
<weight id='2000' > lhapdf=306000 </weight>
</weightgroup>
<weightgroup name='PDF_variation2' combine='replica' >
<weight id='1500' > lhapdf=292200 </weight>
</weightgroup>
</initrwgt>
</header>
<init>
     2212     2212  6.50000E+03  6.50000E+03     -1     -1     -1     -1     -4      1
       1.00000000000E-00 10001
</init>
<event>
     15  10001  7.46677E+01  2.43053E+01 -1.00000E+00  2.63821E-01
      21    -1     0     0   511   501  0.000000000E+00  0.000000000E+00  3.149895974E+02  3.149895974E+02  0.000000000E+00  0.00000E+00  9.000E+00
      21    -1     0     0   507   502  0.000000000E+00  0.000000000E+00 -1.188372348E+02  1.188372348E+02  0.000000000E+00  0.00000E+00  9.000E+00
      -6     2     1     2     0   501 -4.460430335E+01  2.056053923E+01  1.004181181E+02  2.053742191E+02  1.722860754E+02  0.00000E+00  9.000E+00
       6     2     1     2   507     0  5.308002949E+01  2.219060133E+00  9.549982748E+01  2.041461729E+02  1.724326800E+02  0.00000E+00  9.000E+00
     -24     2     3     3     0     0 -6.043609271E+01 -3.920372503E+01  3.199925210E+01  1.128924954E+02  8.081652067E+01  0.00000E+00  9.000E+00
      24     2     4     4     0     0  7.665603354E+01 -1.182575599E+01  1.181899298E+02  1.660388372E+02  8.708639378E+01  0.00000E+00  9.000E+00
     -15     1     6     6     0     0  5.100627513E+01  3.235246014E+01  3.940077766E+01  7.213806311E+01  1.776819944E+00  0.00000E+00  9.000E+00
      16     1     6     6     0     0  2.564975841E+01 -4.417821612E+01  7.878915215E+01  9.390077414E+01  2.697398305E-06  0.00000E+00  9.000E+00
      11     1     5     5     0     0 -8.201724614E+00  2.270624164E+01  1.928493976E+01  3.089903878E+01  0.000000000E+00  0.00000E+00  9.000E+00
     -12     1     5     5     0     0 -5.223436809E+01 -6.190996667E+01  1.271431235E+01  8.199345658E+01  3.090257978E-06  0.00000E+00  9.000E+00
       5     1     4     4   513     0 -2.298643276E+01  1.403027769E+01 -2.437446542E+01  3.632271118E+01  0.000000000E+00  0.00000E+00  9.000E+00
      -5     1     3     3     0   512  1.138961468E+01  4.972555940E+01  5.308243048E+01  7.362132168E+01  0.000000000E+00  0.00000E+00  9.000E+00
      21     1     1     2   511   502 -8.475726141E+00 -2.277959936E+01  2.344170058E-01  2.430644014E+01  6.319557252E-07  0.00000E+00  9.000E+00
      21     1     3     3   512   501  4.442174679E+00  1.003870486E+01  1.533643551E+01  1.886040204E+01  4.460403188E-07  0.00000E+00  9.000E+00
      21     1     4     4   507   513 -5.895712863E-01  1.453842783E-02  1.684363085E+00  1.784624518E+00  2.107342426E-08  0.00000E+00  9.000E+00
#rwgt            1          17   26.474623305802041                1        1441           0
<rwgt>
<wgt id='1001'>0.95075E+02</wgt>
<wgt id='1002'>0.85596E+02</wgt>
<wgt id='1003'>0.10658E+03</wgt>
<wgt id='1004'>0.83669E+02</wgt>
<wgt id='1005'>0.76001E+02</wgt>
<wgt id='1006'>0.92839E+02</wgt>
<wgt id='1007'>0.10853E+03</wgt>
<wgt id='1008'>0.96526E+02</wgt>
<wgt id='1009'>0.12334E+03</wgt>
<wgt id='2000'>0.95075E+02</wgt>
<wgt id='1500'>0.99917E+02</wgt>
</rwgt>
</event>
<event>
     15  10001  7.46677E+01  7.95001E+01 -1.00000E+00  2.50359E-01
      21    -1     0     0   507   512  0.000000000E+00  0.000000000E+00  4.700972155E+02  4.700972155E+02  0.000000000E+00  0.00000E+00  9.000E+00
      21    -1     0     0   501   502  0.000000000E+00  0.000000000E+00 -1.469954282E+02  1.469954282E+02  0.000000000E+00  0.00000E+00  9.000E+00
      -6     2     1     2     0   502 -5.176032633E+01  3.427939993E+01 -8.298699813E+00  1.830306327E+02  1.719800437E+02  0.00000E+00  9.000E+00
       6     2     1     2   507     0 -1.598524883E+01 -7.588228269E+01  1.685880695E+02  2.528766194E+02  1.717876550E+02  0.00000E+00  9.000E+00
     -24     2     3     3     0     0 -2.952762726E+01  3.603833101E+01  5.958890481E+01  1.107310310E+02  8.086953423E+01  0.00000E+00  9.000E+00
      24     2     4     4     0     0 -7.728442531E+01 -6.231301846E+01  5.285607493E+01  1.204362755E+02  4.307362462E+01  0.00000E+00  9.000E+00
     -13     1     6     6     0     0 -3.899952167E+01 -9.325152047E+00  3.352299256E+01  5.226578404E+01  0.000000000E+00  0.00000E+00  9.000E+00
      14     1     6     6     0     0 -3.828490364E+01 -5.298786642E+01  1.933308238E+01  6.817049148E+01  1.092571186E-06  0.00000E+00  9.000E+00
      15     1     5     5     0     0 -5.088365156E+01  3.624997122E+01  1.978201954E+01  6.555678299E+01  1.776819944E+00  0.00000E+00  9.000E+00
     -16     1     5     5     0     0  2.135602430E+01 -2.116402104E-01  3.980688526E+01  4.517424797E+01  9.536743164E-07  0.00000E+00  9.000E+00
       5     1     4     4   514     0  5.972655860E+01 -1.554530775E+01  1.091416441E+02  1.253826817E+02  0.000000000E+00  0.00000E+00  9.000E+00
      -5     1     3     3     0   511 -2.312455709E+01 -8.287087387E-01 -5.999828813E+01  6.430572663E+01  0.000000000E+00  0.00000E+00  9.000E+00
      21     1     1     2   501   512  6.774557517E+01  4.160288276E+01  1.628124176E+02  1.811853916E+02  4.264961200E-06  0.00000E+00  9.000E+00
      21     1     3     3   511   502  8.918580134E-01 -9.302223399E-01 -7.889316488E+00  7.993875091E+00  1.685873940E-07  0.00000E+00  9.000E+00
      21     1     4     4   507   514  1.572617874E+00  1.976043531E+00  6.590350473E+00  7.057662104E+00  8.429369702E-08  0.00000E+00  9.000E+00
#rwgt            1          17   149.13691819057240                1       24616           0
<rwgt>
<wgt id='1001'>0.71905E+02</wgt>
<wgt id='1002'>0.68982E+02</wgt>
<wgt id='1003'>0.74629E+02</wgt>
<wgt id='1004'>0.55296E+02</wgt>
<wgt id='1005'>0.53047E+02</wgt>
<wgt id='1006'>0.57391E+02</wgt>
<wgt id='1007'>0.96105E+02</wgt>
<wgt id='1008'>0.92201E+02</wgt>
<wgt id='1009'>0.99744E+02</wgt>
<wgt id='2000'>0.71905E+02</wgt>
<wgt id='1500'>0.75999E+02</wgt>
</rwgt>
</event>
<event>
     14  10001  7.46677E+01  4.63965E+01 -1.00000E+00  6.85588E-01
      21    -1     0     0   507   511  0.000000000E+00  0.000000000E+00  8.279862479E+02  8.279862479E+02  0.000000000E+00  0.00000E+00  9.000E+00
      21    -1     0     0   501   502  0.000000000E+00  0.000000000E+00 -9.545120389E+01  9.545120389E+01  0.000000000E+00  0.00000E+00  9.000E+00
      -6     2     1     2     0   502  7.850767786E+01 -6.109794362E+01  5.472921898E+02  5.823506308E+02  1.723574833E+02  0.00000E+00  9.000E+00
       6     2     1     2   507     0 -3.307255555E+01  7.049372096E+01  2.148841507E+02  2.860301463E+02  1.719735088E+02  0.00000E+00  9.000E+00
     -24     2     3     3     0     0  9.869834737E+00 -4.163149023E+01  4.633188297E+02  4.721616045E+02  8.025987915E+01  0.00000E+00  9.000E+00
      24     2     4     4     0     0 -7.959506439E+01  8.202995774E+01  1.683057058E+02  2.190901559E+02  8.129820154E+01  0.00000E+00  9.000E+00
     -11     1     6     6     0     0 -5.390685744E+01  4.997155716E+00  4.026054233E+01  6.746726697E+01  0.000000000E+00  0.00000E+00  9.000E+00
      12     1     6     6     0     0 -2.568820695E+01  7.703280202E+01  1.280451635E+02  1.516228889E+02  3.015782986E-06  0.00000E+00  9.000E+00
      13     1     5     5     0     0 -4.664682556E+00  1.770327349E+01  3.491002527E+01  3.941922145E+01  0.000000000E+00  0.00000E+00  9.000E+00
     -14     1     5     5     0     0  1.453451729E+01 -5.933476372E+01  4.284088045E+02  4.327423831E+02  7.629394531E-06  0.00000E+00  9.000E+00
       5     1     4     4   512     0  4.201580393E+01 -9.492745586E+00  4.077174737E+01  5.931083698E+01  0.000000000E+00  0.00000E+00  9.000E+00
      -5     1     3     3     0   502  6.863784313E+01 -1.946645339E+01  8.397336003E+01  1.101890263E+02  0.000000000E+00  0.00000E+00  9.000E+00
      21     1     1     2   501   511 -4.543512231E+01 -9.395777344E+00 -2.964129647E+01  5.505667469E+01  2.023048729E-06  0.00000E+00  9.000E+00
      21     1     4     4   507   512  4.506704903E+00 -2.043491187E+00  5.806697572E+00  7.629153427E+00  1.192092896E-07  0.00000E+00  9.000E+00
#rwgt            1          17   32.204948431992968                1       49777           0
<rwgt>
<wgt id='1001'>0.76900E+02</wgt>
<wgt id='1002'>0.76164E+02</wgt>
<wgt id='1003'>0.77369E+02</wgt>
<wgt id='1004'>0.61494E+02</wgt>
<wgt id='1005'>0.60797E+02</wgt>
<wgt id='1006'>0.61985E+02</wgt>
<wgt id='1007'>0.98616E+02</wgt>
<wgt id='1008'>0.97860E+02</wgt>
<wgt id='1009'>0.99015E+02</wgt>
<wgt id='2000'>0.76900E+02</wgt>
<wgt id='1500'>0.82861E+02</wgt>
</rwgt>
</event>
<event>
     15  10001  7.46677E+01  7.70783E+01 -1.00000E+00  3.17402E-01
      21    -1     0     0   507   501  0.000000000E+00  0.000000000E+00  1.305201626E+02  1.305201626E+02  0.000000000E+00  0.00000E+00  9.000E+00
       2    -1     0     0   501     0  0.000000000E+00  0.000000000E+00 -9.533725224E+02  9.533725224E+02  0.000000000E+00  0.00000E+00  9.000E+00
      -6     2     1     2     0   502  3.868326574E+01 -1.352302450E+02 -1.871106219E+02  2.906225776E+02  1.722425139E+02  0.00000E+00  9.000E+00
       6     2     1     2   507     0 -5.674365209E+01  2.101628036E+02 -1.770340141E+02  3.281315884E+02  1.701206956E+02  0.00000E+00  9.000E+00
     -24     2     3     3     0     0  8.767031158E+01 -6.386723131E+01 -1.311081727E+02  1.874962328E+02  7.874247632E+01  0.00000E+00  9.000E+00
      24     2     4     4     0     0 -6.088940901E+01  1.412850279E+02 -4.736467960E+01  1.799795921E+02  8.050007127E+01  0.00000E+00  9.000E+00
     -11     1     6     6     0     0 -3.554727682E+01  3.799704522E+01 -5.195341979E+01  7.352919259E+01  0.000000000E+00  0.00000E+00  9.000E+00
      12     1     6     6     0     0 -2.534213219E+01  1.032879827E+02  4.588740185E+00  1.064503995E+02  2.062182890E-06  0.00000E+00  9.000E+00
      13     1     5     5     0     0  6.889515797E+01 -2.357273747E+01 -3.331943170E+01  8.007747044E+01  0.000000000E+00  0.00000E+00  9.000E+00
     -14     1     5     5     0     0  1.877515361E+01 -4.029449384E+01 -9.778874103E+01  1.074187623E+02  2.697398305E-06  0.00000E+00  9.000E+00
       5     1     4     4   511     0  3.438491627E+00  6.990520410E+01 -1.244019778E+02  1.427389676E+02  0.000000000E+00  0.00000E+00  9.000E+00
      -5     1     3     3     0   512 -3.547426156E+01 -5.040593657E+01 -3.881032270E+01  7.283833347E+01  0.000000000E+00  0.00000E+00  9.000E+00
       2     1     1     2   502     0  1.806038634E+01 -7.493255858E+01 -4.587077239E+02  4.651385190E+02  0.000000000E+00  0.00000E+00  9.000E+00
      21     1     4     4   507   511  7.072652986E-01 -1.027428358E+00 -5.267356621E+00  5.413028636E+00  8.429369702E-08  0.00000E+00  9.000E+00
      21     1     3     3   512   502 -1.351278427E+01 -2.095707716E+01 -1.719212648E+01  3.028801141E+01  2.384185791E-07  0.00000E+00  9.000E+00
#rwgt            1          17   8.8012883824380079                1       93076           0
<rwgt>
<wgt id='1001'>0.91498E+02</wgt>
<wgt id='1002'>0.94784E+02</wgt>
<wgt id='1003'>0.87767E+02</wgt>
<wgt id='1004'>0.78807E+02</wgt>
<wgt id='1005'>0.80857E+02</wgt>
<wgt id='1006'>0.76440E+02</wgt>
<wgt id='1007'>0.10753E+03</wgt>
<wgt id='1008'>0.11273E+03</wgt>
<wgt id='1009'>0.10169E+03</wgt>
<wgt id='2000'>0.91498E+02</wgt>
<wgt id='1500'>0.97819E+02</wgt>
</rwgt>
</event>
<event>
     14  10001  7.46677E+01  5.68221E+01 -1.00000E+00  1.77418E-01
      21    -1     0     0   507   511  0.000000000E+00  0.000000000E+00  2.598108246E+02  2.598108246E+02  0.000000000E+00  0.00000E+00  9.000E+00
      21    -1     0     0   501   502  0.000000000E+00  0.000000000E+00 -3.982521896E+02  3.982521896E+02  0.000000000E+00  0.00000E+00  9.000E+00
      -6     2     1     2     0   502 -2.647253205E+01 -3.628640621E+01 -1.938990644E+02  2.635476434E+02  1.727513095E+02  0.00000E+00  9.000E+00
       6     2     1     2   507     0  4.927203246E+00  8.886536546E+01 -1.073231492E+02  2.221020510E+02  1.728864720E+02  0.00000E+00  9.000E+00
     -24     2     3     3     0     0 -5.914785388E+01  2.096137464E+01 -6.804709577E+01  1.209403433E+02  7.783515619E+01  0.00000E+00  9.000E+00
      24     2     4     4     0     0  1.157962587E+01 -1.479714131E+00  1.206566527E+00  8.073307514E+01  7.987550519E+01  0.00000E+00  9.000E+00
     -13     1     6     6     0     0 -1.259699945E+00  2.685139518E+01  2.862571909E+01  3.926851233E+01  0.000000000E+00  0.00000E+00  9.000E+00
      14     1     6     6     0     0  1.283932582E+01 -2.833110931E+01 -2.741915256E+01  4.146456281E+01  1.348699152E-06  0.00000E+00  9.000E+00
      15     1     5     5     0     0  3.544102775E+00  3.204356583E+01 -3.991126098E+01  5.133630896E+01  1.776819944E+00  0.00000E+00  9.000E+00
     -16     1     5     5     0     0 -6.269195665E+01 -1.108219119E+01 -2.813583480E+01  6.960403430E+01  1.617033478E-06  0.00000E+00  9.000E+00
       5     1     4     4   507     0 -6.652422629E+00  9.034507959E+01 -1.085297158E+02  1.413689759E+02  0.000000000E+00  0.00000E+00  9.000E+00
      -5     1     3     3     0   512  1.082586854E+01 -3.137283573E+01 -6.373694942E+01  7.185995389E+01  0.000000000E+00  0.00000E+00  9.000E+00
      21     1     1     2   501   511  2.154532880E+01 -5.257895925E+01  1.627808486E+02  1.724133197E+02  0.000000000E+00  0.00000E+00  9.000E+00
      21     1     3     3   512   502  2.184945329E+01 -2.587494512E+01 -6.211501918E+01  7.074734626E+01  6.743495762E-07  0.00000E+00  9.000E+00
#rwgt            1          17   23.386992067812901                1      117771           0
<rwgt>
<wgt id='1001'>0.98615E+02</wgt>
<wgt id='1002'>0.10003E+03</wgt>
<wgt id='1003'>0.96892E+02</wgt>
<wgt id='1004'>0.83631E+02</wgt>
<wgt id='1005'>0.84370E+02</wgt>
<wgt id='1006'>0.82630E+02</wgt>
<wgt id='1007'>0.11812E+03</wgt>
<wgt id='1008'>0.12062E+03</wgt>
<wgt id='1009'>0.11525E+03</wgt>
<wgt id='2000'>0.98615E+02</wgt>
<wgt id='1500'>0.10398E+03</wgt>
</rwgt>
</event>
<event>
     15  10001  7.46677E+01  3.41030E+01 -1.00000E+00  3.47546E-01
      21    -1     0     0   512   501  0.000000000E+00  0.000000000E+00  6.878629949E+02  6.878629949E+02  0.000000000E+00  0.00000E+00  9.000E+00
      21    -1     0     0   507   502  0.000000000E+00  0.000000000E+00 -6.863770480E+01  6.863770480E+01  0.000000000E+00  0.00000E+00  9.000E+00
      -6     2     1     2     0   501 -5.011756825E+01  2.801489381E+01  3.569603416E+02  3.998184870E+02  1.706971944E+02  0.00000E+00  9.000E+00
       6     2     1     2   507     0  4.037438416E+01 -6.069647139E+01  1.538070655E+02  2.429890839E+02  1.734154807E+02  0.00000E+00  9.000E+00
     -24     2     3     3     0     0 -7.225352149E+01  6.918983695E+01  2.233660136E+02  2.576852109E+02  8.063179894E+01  0.00000E+00  9.000E+00
      24     2     4     4     0     0  8.735304213E+01 -1.161396101E+01  1.085282283E+02  1.606313237E+02  7.911136303E+01  0.00000E+00  9.000E+00
     -13     1     6     6     0     0 -7.973710362E+00 -2.088313568E+01  2.513492315E+01  3.363702981E+01  0.000000000E+00  0.00000E+00  9.000E+00
      14     1     6     6     0     0  9.532675250E+01  9.269174669E+00  8.339330512E+01  1.269942939E+02  1.348699152E-06  0.00000E+00  9.000E+00
      11     1     5     5     0     0 -3.305535771E+01 -1.430085894E+01  5.586310693E+01  6.646696890E+01  0.000000000E+00  0.00000E+00  9.000E+00
     -12     1     5     5     0     0 -3.919816378E+01  8.349069589E+01  1.675029066E+02  1.912182420E+02  2.697398305E-06  0.00000E+00  9.000E+00
       5     1     4     4   513     0 -4.751999712E+01 -4.798765138E+01  4.481374377E+01  8.105082629E+01  0.000000000E+00  0.00000E+00  9.000E+00
      -5     1     3     3     0   511  2.285344071E+01 -4.130061135E+01  1.268107739E+02  1.353107263E+02  0.000000000E+00  0.00000E+00  9.000E+00
      21     1     1     2   512   502  9.743184089E+00  3.268157758E+01  1.084578830E+02  1.136931288E+02  1.348699152E-06  0.00000E+00  9.000E+00
      21     1     3     3   511   501 -7.174874725E-01  1.256682121E-01  6.783554032E+00  6.822549823E+00  1.192092896E-07  0.00000E+00  9.000E+00
      21     1     4     4   507   513  5.413391498E-01 -1.094859003E+00  4.650935023E-01  1.306933922E+00  3.026440145E-08  0.00000E+00  9.000E+00
#rwgt            1          17   22.684657813663314                1      134029           0
<rwgt>
<wgt id='1001'>0.71505E+02</wgt>
<wgt id='1002'>0.73779E+02</wgt>
<wgt id='1003'>0.68979E+02</wgt>
<wgt id='1004'>0.63623E+02</wgt>
<wgt id='1005'>0.64952E+02</wgt>
<wgt id='1006'>0.62085E+02</wgt>
<wgt id='1007'>0.80413E+02</wgt>
<wgt id='1008'>0.84189E+02</wgt>
<wgt id='1009'>0.76328E+02</wgt>
<wgt id='2000'>0.71505E+02</wgt>
<wgt id='1500'>0.75940E+02</wgt>
</rwgt>
</event>
<event>
     14  10001 -7.46677E+01  3.63317E+01 -1.00000E+00  2.26385E-01
       2    -1     0     0   511     0  0.000000000E+00  0.000000000E+00  1.162808253E+02  1.162808253E+02  0.000000000E+00  0.00000E+00  9.000E+00
      -2    -1     0     0     0   502  0.000000000E+00  0.000000000E+00 -3.640154315E+02  3.640154315E+02  0.000000000E+00  0.00000E+00  9.000E+00
      -6     2     1     2     0   507  1.209786778E+01 -1.633747083E+01 -1.816249117E+02  2.516942676E+02  1.730581534E+02  0.00000E+00  9.000E+00
       6     2     1     2   507     0 -4.842924202E+01  1.649953276E+01 -6.115232313E+01  1.919336030E+02  1.745888750E+02  0.00000E+00  9.000E+00
     -24     2     3     3     0     0 -2.327658344E+01 -6.769469105E+01 -1.018979402E+02  1.486965949E+02  8.125956296E+01  0.00000E+00  9.000E+00
      24     2     4     4     0     0 -2.983729841E+01 -5.605759830E+01 -1.819027317E+01  1.055858446E+02  8.236969009E+01  0.00000E+00  9.000E+00
     -13     1     6     6     0     0  1.672808481E+01 -5.073014745E+01 -2.361434421E+01  5.840388629E+01  0.000000000E+00  0.00000E+00  9.000E+00
      14     1     6     6     0     0 -4.656538321E+01 -5.327450850E+00  5.424071031E+00  4.718195834E+01  5.591411304E-07  0.00000E+00  9.000E+00
      15     1     5     5     0     0 -2.932111617E+01 -5.596916215E+01 -1.142850819E+02  1.306005819E+02  1.776819944E+00  0.00000E+00  9.000E+00
     -16     1     5     5     0     0  6.044532730E+00 -1.172552890E+01  1.238714171E+01  1.809601292E+01  8.760057960E-07  0.00000E+00  9.000E+00
       5     1     4     4   507     0 -1.859194361E+01  7.255713106E+01 -4.296204995E+01  8.634775834E+01  0.000000000E+00  0.00000E+00  9.000E+00
      -5     1     3     3     0   512  3.607707081E+01  4.783080051E+01 -7.928436292E+01  9.937479922E+01  0.000000000E+00  0.00000E+00  9.000E+00
      21     1     1     2   511   502  3.633137424E+01 -1.620619299E-01 -4.957371439E+00  3.666838625E+01  7.633118912E-07  0.00000E+00  9.000E+00
      21     1     3     3   512   507 -7.026195890E-01  3.526419710E+00 -4.426085457E-01  3.622873526E+00  1.402808009E-07  0.00000E+00  9.000E+00
#rwgt            1           8 -0.36486479269817201                1      172191           0
<rwgt>
<wgt id='1001'>-.74378E+02</wgt>
<wgt id='1002'>-.75722E+02</wgt>
<wgt id='1003'>-.72398E+02</wgt>
<wgt id='1004'>-.55015E+02</wgt>
<wgt id='1005'>-.56020E+02</wgt>
<wgt id='1006'>-.53536E+02</wgt>
<wgt id='1007'>-.10327E+03</wgt>
<wgt id='1008'>-.10511E+03</wgt>
<wgt id='1009'>-.10054E+03</wgt>
<wgt id='2000'>-.74378E+02</wgt>
<wgt id='1500'>-.74451E+02</wgt>
</rwgt>
</event>
<event>
     15  10001 -7.46677E+01  9.46310E+01 -1.00000E+00  2.10906E-01
      21    -1     0     0   512   501  0.000000000E+00  0.000000000E+00  1.940925326E+02  1.940925326E+02  0.000000000E+00  0.00000E+00  9.000E+00
      21    -1     0     0   507   502  0.000000000E+00  0.000000000E+00 -8.676019027E+02  8.676019027E+02  0.000000000E+00  0.00000E+00  9.000E+00
      -6     2     1     2     0   501  1.031296274E+02 -1.876014958E+02 -1.941818260E+02  3.269201337E+02  1.527748375E+02  0.00000E+00  9.000E+00
       6     2     1     2   507     0 -2.122602284E+01  1.402007873E+02  2.144389680E+01  2.251400568E+02  1.735551775E+02  0.00000E+00  9.000E+00
     -24     2     3     3     0     0  7.800185944E+01 -1.885712914E+02 -2.011874283E+02  2.974067071E+02  7.956724274E+01  0.00000E+00  9.000E+00
      24     2     4     4     0     0 -1.310063613E+00  1.398351334E+01  4.710833427E+01  9.440222374E+01  8.059360878E+01  0.00000E+00  9.000E+00
     -11     1     6     6     0     0  6.450222486E+00 -1.502437329E+01 -1.701418052E+01  2.359702315E+01  0.000000000E+00  0.00000E+00  9.000E+00
      12     1     6     6     0     0 -7.760286098E+00  2.900788663E+01  6.412251479E+01  7.080520059E+01  1.907348633E-06  0.00000E+00  9.000E+00
      13     1     5     5     0     0 -8.777508904E+00 -7.143499939E+01 -8.200319640E+01  1.091078733E+02  0.000000000E+00  0.00000E+00  9.000E+00
     -14     1     5     5     0     0  8.677936834E+01 -1.171362920E+02 -1.191842319E+02  1.882988338E+02  2.336015456E-06  0.00000E+00  9.000E+00
       5     1     4     4   514     0 -2.070650248E+01  1.249358983E+02 -2.496399263E+01  1.290772593E+02  0.000000000E+00  0.00000E+00  9.000E+00
      -5     1     3     3     0   511  2.620986522E+01  1.866169954E-01  4.388829814E+00  2.657543392E+01  0.000000000E+00  0.00000E+00  9.000E+00
      21     1     1     2   512   502 -8.190360456E+01  4.740070845E+01 -5.007714409E+02  5.096342449E+02  0.000000000E+00  0.00000E+00  9.000E+00
      21     1     3     3   511   501 -1.082097263E+00  7.831785903E-01  2.616772410E+00  2.937992688E+00  2.327635788E-07  0.00000E+00  9.000E+00
      21     1     4     4   507   514  7.905432510E-01  1.281375692E+00 -7.004448360E-01  1.660573775E+00  1.971238338E-08  0.00000E+00  9.000E+00
#rwgt            1          17  -26.118011730464008                1      174245           0
<rwgt>
<wgt id='1001'>-.71173E+02</wgt>
<wgt id='1002'>-.64180E+02</wgt>
<wgt id='1003'>-.78703E+02</wgt>
<wgt id='1004'>-.53395E+02</wgt>
<wgt id='1005'>-.48094E+02</wgt>
<wgt id='1006'>-.59107E+02</wgt>
<wgt id='1007'>-.97229E+02</wgt>
<wgt id='1008'>-.87773E+02</wgt>
<wgt id='1009'>-.10741E+03</wgt>
<wgt id='2000'>-.71173E+02</wgt>
<wgt id='1500'>-.76156E+02</wgt>
</rwgt>
</event>
<event>
     15  10001  7.46677E+01  3.31947E+01 -1.00000E+00  4.64186E-01
      21    -1     0     0   511   501  0.000000000E+00  0.000000000E+00  4.644340769E+01  4.644340769E+01  0.000000000E+00  0.00000E+00  9.000E+00
      21    -1     0     0   501   502  0.000000000E+00  0.000000000E+00 -1.379278819E+03  1.379278819E+03  0.000000000E+00  0.00000E+00  9.000E+00
      -6     2     1     2     0   502  6.756204904E+00  5.762769085E+01 -8.991630767E+02  9.159227177E+02  1.644797538E+02  0.00000E+00  9.000E+00
       6     2     1     2   507     0  2.587634157E-02 -2.513317068E+01 -4.431251944E+02  4.752850623E+02  1.700125748E+02  0.00000E+00  9.000E+00
     -24     2     3     3     0     0  5.554461784E+01  2.531696685E+01 -7.245921637E+02  7.315502131E+02  8.003597442E+01  0.00000E+00  9.000E+00
      24     2     4     4     0     0 -3.916925869E+01  4.741869692E+00 -3.915662155E+02  4.019103697E+02  8.155444800E+01  0.00000E+00  9.000E+00
     -13     1     6     6     0     0  2.298261023E+01  1.522395531E+01 -1.190067282E+02  1.221579737E+02  0.000000000E+00  0.00000E+00  9.000E+00
      14     1     6     6     0     0 -6.215186892E+01 -1.048208562E+01 -2.725594873E+02  2.797523960E+02  0.000000000E+00  0.00000E+00  9.000E+00
      11     1     5     5     0     0  3.783749142E+01 -2.623728552E+01 -3.483207512E+02  3.513508455E+02  0.000000000E+00  0.00000E+00  9.000E+00
     -12     1     5     5     0     0  1.770712643E+01  5.155425237E+01 -3.762714125E+02  3.801993676E+02  1.078959322E-05  0.00000E+00  9.000E+00
       5     1     4     4   512     0  3.860054896E+01 -3.136454225E+01 -5.173023009E+01  7.176178367E+01  0.000000000E+00  0.00000E+00  9.000E+00
      -5     1     3     3     0   513 -4.884974982E+01  3.255467103E+01 -1.745022533E+02  1.841117624E+02  0.000000000E+00  0.00000E+00  9.000E+00
      21     1     1     2   511   507 -6.782081246E+00 -3.249452017E+01  9.452859773E+00  3.451444661E+01  1.267212130E-06  0.00000E+00  9.000E+00
      21     1     4     4   507   512  5.945860708E-01  1.489501880E+00  1.712511426E-01  1.612908987E+00  6.769888790E-08  0.00000E+00  9.000E+00
      21     1     3     3   513   502  6.133688174E-02 -2.439470289E-01 -6.865968873E-02  2.607422460E-01  3.401559287E-08  0.00000E+00  9.000E+00
#rwgt            1          17   25.769625731575630                1      194871           0
<rwgt>
<wgt id='1001'>0.84201E+02</wgt>
<wgt id='1002'>0.83955E+02</wgt>
<wgt id='1003'>0.84201E+02</wgt>
<wgt id='1004'>0.72649E+02</wgt>
<wgt id='1005'>0.72017E+02</wgt>
<wgt id='1006'>0.73086E+02</wgt>
<wgt id='1007'>0.98658E+02</wgt>
<wgt id='1008'>0.99108E+02</wgt>
<wgt id='1009'>0.97888E+02</wgt>
<wgt id='2000'>0.84201E+02</wgt>
<wgt id='1500'>0.93105E+02</wgt>
</rwgt>
</event>
<event>
     15  10001  7.46677E+01  8.27282E+01 -1.00000E+00  2.93488E-01
       2    -1     0     0   502     0  0.000000000E+00  0.000000000E+00  1.157300236E+03  1.157300236E+03  0.000000000E+00  0.00000E+00  9.000E+00
      21    -1     0     0   512   502  0.000000000E+00  0.000000000E+00 -6.391561172E+02  6.391561172E+02  0.000000000E+00  0.00000E+00  9.000E+00
      -6     2     1     2     0   507 -7.359671938E+02 -1.666374024E+02  3.137945602E+02  8.355489599E+02  1.739520167E+02  0.00000E+00  9.000E+00
       6     2     1     2   507     0  6.868687292E+02  2.332204538E+02  3.257264924E+02  8.140185849E+02  1.742069958E+02  0.00000E+00  9.000E+00
     -24     2     3     3     0     0 -6.557039199E+02 -1.028661369E+02  2.966292014E+02  7.314646293E+02  8.076229408E+01  0.00000E+00  9.000E+00
      24     2     4     4     0     0  6.484679791E+02  2.451253362E+02  3.115430523E+02  7.643836214E+02  8.140084102E+01  0.00000E+00  9.000E+00
     -15     1     6     6     0     0  3.490327908E+02  1.179416271E+02  1.232401077E+02  3.884911809E+02  1.776819944E+00  0.00000E+00  9.000E+00
      16     1     6     6     0     0  2.994351883E+02  1.271837090E+02  1.883029446E+02  3.758924405E+02  4.672030912E-06  0.00000E+00  9.000E+00
      11     1     5     5     0     0 -3.536567706E+02 -9.614154813E+01  1.640425120E+02  4.015298923E+02  0.000000000E+00  0.00000E+00  9.000E+00
     -12     1     5     5     0     0 -3.020471493E+02 -6.724588787E+00  1.325866894E+02  3.299347370E+02  5.722045898E-06  0.00000E+00  9.000E+00
       5     1     4     4   511     0  2.663372723E+01 -1.874231795E+01  4.375978518E+00  3.285999234E+01  0.000000000E+00  0.00000E+00  9.000E+00
      -5     1     3     3     0   514 -6.263149951E+01 -4.983147949E+01  1.109227167E+01  8.080172999E+01  0.000000000E+00  0.00000E+00  9.000E+00
       2     1     1     2   512     0  4.909846456E+01 -6.658305142E+01 -1.213769339E+02  1.468888084E+02  0.000000000E+00  0.00000E+00  9.000E+00
      21     1     4     4   507   511  1.176702293E+01  6.837435608E+00  9.807461564E+00  1.677497114E+01  1.685873940E-07  0.00000E+00  9.000E+00
      21     1     3     3   514   507 -1.763177440E+01 -1.393978598E+01  6.073087163E+00  2.328260057E+01  8.429369702E-08  0.00000E+00  9.000E+00
#rwgt            1           8   5.1412181169044731                1      225341           0
<rwgt>
<wgt id='1001'>0.43938E+02</wgt>
<wgt id='1002'>0.44795E+02</wgt>
<wgt id='1003'>0.42930E+02</wgt>
<wgt id='1004'>0.49530E+02</wgt>
<wgt id='1005'>0.49406E+02</wgt>
<wgt id='1006'>0.49620E+02</wgt>
<wgt id='1007'>0.33003E+02</wgt>
<wgt id='1008'>0.35387E+02</wgt>
<wgt id='1009'>0.30289E+02</wgt>
<wgt id='2000'>0.43938E+02</wgt>
<wgt id='1500'>0.44355E+02</wgt>
</rwgt>
</event>
</LesHouchesEvents>
